 Default CPUs for threads: 0,1
 Default is to use a total of   2 processors:
                                2 via shared-memory
                                1 via Linda
 Entering Link 1 = C:\G16W\l1.exe PID=     10088.
  
 Copyright (c) 1988-2017, Gaussian, Inc.  All Rights Reserved.
  
 This is part of the Gaussian(R) 16 program.  It is based on
 the Gaussian(R) 09 system (copyright 2009, Gaussian, Inc.),
 the Gaussian(R) 03 system (copyright 2003, Gaussian, Inc.),
 the Gaussian(R) 98 system (copyright 1998, Gaussian, Inc.),
 the Gaussian(R) 94 system (copyright 1995, Gaussian, Inc.),
 the Gaussian 92(TM) system (copyright 1992, Gaussian, Inc.),
 the Gaussian 90(TM) system (copyright 1990, Gaussian, Inc.),
 the Gaussian 88(TM) system (copyright 1988, Gaussian, Inc.),
 the Gaussian 86(TM) system (copyright 1986, Carnegie Mellon
 University), and the Gaussian 82(TM) system (copyright 1983,
 Carnegie Mellon University). Gaussian is a federally registered
 trademark of Gaussian, Inc.
  
 This software contains proprietary and confidential information,
 including trade secrets, belonging to Gaussian, Inc.
  
 This software is provided under written license and may be
 used, copied, transmitted, or stored only in accord with that
 written license.
  
 The following legend is applicable only to US Government
 contracts under FAR:
  
                    RESTRICTED RIGHTS LEGEND
  
 Use, reproduction and disclosure by the US Government is
 subject to restrictions as set forth in subparagraphs (a)
 and (c) of the Commercial Computer Software - Restricted
 Rights clause in FAR 52.227-19.
  
 Gaussian, Inc.
 340 Quinnipiac St., Bldg. 40, Wallingford CT 06492
  
  
 ---------------------------------------------------------------
 Warning -- This program may not be used in any manner that
 competes with the business of Gaussian, Inc. or will provide
 assistance to any competitor of Gaussian, Inc.  The licensee
 of this program is prohibited from giving any competitor of
 Gaussian, Inc. access to this program.  By using this program,
 the user acknowledges that Gaussian, Inc. is engaged in the
 business of creating and licensing software in the field of
 computational chemistry and represents and warrants to the
 licensee that it is not a competitor of Gaussian, Inc. and that
 it will not use this program in any manner prohibited above.
 ---------------------------------------------------------------
  

 Cite this work as:
 Gaussian 16, Revision B.01,
 M. J. Frisch, G. W. Trucks, H. B. Schlegel, G. E. Scuseria, 
 M. A. Robb, J. R. Cheeseman, G. Scalmani, V. Barone, 
 G. A. Petersson, H. Nakatsuji, X. Li, M. Caricato, A. V. Marenich, 
 J. Bloino, B. G. Janesko, R. Gomperts, B. Mennucci, H. P. Hratchian, 
 J. V. Ortiz, A. F. Izmaylov, J. L. Sonnenberg, D. Williams-Young, 
 F. Ding, F. Lipparini, F. Egidi, J. Goings, B. Peng, A. Petrone, 
 T. Henderson, D. Ranasinghe, V. G. Zakrzewski, J. Gao, N. Rega, 
 G. Zheng, W. Liang, M. Hada, M. Ehara, K. Toyota, R. Fukuda, 
 J. Hasegawa, M. Ishida, T. Nakajima, Y. Honda, O. Kitao, H. Nakai, 
 T. Vreven, K. Throssell, J. A. Montgomery, Jr., J. E. Peralta, 
 F. Ogliaro, M. J. Bearpark, J. J. Heyd, E. N. Brothers, K. N. Kudin, 
 V. N. Staroverov, T. A. Keith, R. Kobayashi, J. Normand, 
 K. Raghavachari, A. P. Rendell, J. C. Burant, S. S. Iyengar, 
 J. Tomasi, M. Cossi, J. M. Millam, M. Klene, C. Adamo, R. Cammi, 
 J. W. Ochterski, R. L. Martin, K. Morokuma, O. Farkas, 
 J. B. Foresman, and D. J. Fox, Gaussian, Inc., Wallingford CT, 2016.
 
 ******************************************
 Gaussian 16:  EM64W-G16RevB.01 16-Dec-2017
                23-May-2020 
 ******************************************
 %chk=C:\Users\zz\Desktop\benzene_R.chk
 SetSPE:  set environment variable "MP_BIND" = "yes"
 SetSPE:  set environment variable "MP_BLIST" = "0,1"
 Default route: G09Defaults
 ------------------
 # SP RB3LYP/6-31G*
 ------------------
 1/38=1,158=3,167=1,172=1/1;
 2/12=2,17=6,18=5,40=1/2;
 3/5=1,6=6,7=1,11=2,25=1,27=10,30=1,74=-5,75=-4,116=1,158=3/1,2,3;
 4/60=-1/1;
 5/5=2,38=5,87=10/2;
 6/7=2,8=2,9=2,10=2,28=1,87=10/1;
 99/5=1,9=1/99;
 Using 2006 physical constants.
 ---------
 Optimized
 ---------
 Symbolic Z-matrix:
 Charge =  0 Multiplicity = 1
 C                     0.        1.39649   0. 
 C                     1.2094    0.69825   0. 
 C                     1.2094   -0.69825   0. 
 C                     0.       -1.39649   0. 
 C                    -1.2094   -0.69825   0. 
 C                    -1.2094    0.69825   0. 
 H                     0.        2.48319   0. 
 H                     2.15051   1.2416    0. 
 H                     2.15051  -1.2416    0. 
 H                     0.       -2.48319   0. 
 H                    -2.15051  -1.2416    0. 
 H                    -2.15051   1.2416    0. 
 
                          Input orientation:                          
 ---------------------------------------------------------------------
 Center     Atomic      Atomic             Coordinates (Angstroms)
 Number     Number       Type             X           Y           Z
 ---------------------------------------------------------------------
      1          6           0        0.000000    1.396490    0.000000
      2          6           0        1.209396    0.698245    0.000000
      3          6           0        1.209396   -0.698245    0.000000
      4          6           0        0.000000   -1.396490    0.000000
      5          6           0       -1.209396   -0.698245    0.000000
      6          6           0       -1.209396    0.698245    0.000000
      7          1           0        0.000000    2.483191    0.000000
      8          1           0        2.150506    1.241595    0.000000
      9          1           0        2.150506   -1.241595    0.000000
     10          1           0        0.000000   -2.483191    0.000000
     11          1           0       -2.150506   -1.241595    0.000000
     12          1           0       -2.150506    1.241595    0.000000
 ---------------------------------------------------------------------
                    Distance matrix (angstroms):
                    1          2          3          4          5
     1  C    0.000000
     2  C    1.396490   0.000000
     3  C    2.418792   1.396490   0.000000
     4  C    2.792980   2.418792   1.396490   0.000000
     5  C    2.418792   2.792980   2.418792   1.396490   0.000000
     6  C    1.396490   2.418792   2.792980   2.418792   1.396490
     7  H    1.086701   2.156078   3.403553   3.879681   3.403553
     8  H    2.156077   1.086700   2.156077   3.403552   3.879680
     9  H    3.403552   2.156077   1.086700   2.156077   3.403553
    10  H    3.879681   3.403553   2.156078   1.086701   2.156078
    11  H    3.403552   3.879680   3.403553   2.156077   1.086700
    12  H    2.156077   3.403553   3.879680   3.403552   2.156077
                    6          7          8          9         10
     6  C    0.000000
     7  H    2.156078   0.000000
     8  H    3.403553   2.483191   0.000000
     9  H    3.879680   4.301012   2.483190   0.000000
    10  H    3.403553   4.966382   4.301012   2.483191   0.000000
    11  H    2.156077   4.301012   4.966381   4.301012   2.483191
    12  H    1.086700   2.483191   4.301012   4.966381   4.301012
                   11         12
    11  H    0.000000
    12  H    2.483190   0.000000
 Stoichiometry    C6H6
 Framework group  D6H[3C2'(HC.CH)]
 Deg. of freedom     2
 Full point group                 D6H     NOp  24
 Largest Abelian subgroup         D2H     NOp   8
 Largest concise Abelian subgroup D2      NOp   4
                         Standard orientation:                         
 ---------------------------------------------------------------------
 Center     Atomic      Atomic             Coordinates (Angstroms)
 Number     Number       Type             X           Y           Z
 ---------------------------------------------------------------------
      1          6           0        0.000000    1.396490    0.000000
      2          6           0       -1.209396    0.698245    0.000000
      3          6           0       -1.209396   -0.698245    0.000000
      4          6           0        0.000000   -1.396490    0.000000
      5          6           0        1.209396   -0.698245    0.000000
      6          6           0        1.209396    0.698245    0.000000
      7          1           0        0.000000    2.483191    0.000000
      8          1           0       -2.150506    1.241595    0.000000
      9          1           0       -2.150506   -1.241595    0.000000
     10          1           0        0.000000   -2.483191    0.000000
     11          1           0        2.150506   -1.241595    0.000000
     12          1           0        2.150506    1.241595    0.000000
 ---------------------------------------------------------------------
 Rotational constants (GHZ):           5.6879958           5.6879958           2.8439979
 Standard basis: 6-31G(d) (6D, 7F)
 There are    23 symmetry adapted cartesian basis functions of AG  symmetry.
 There are    16 symmetry adapted cartesian basis functions of B1G symmetry.
 There are     5 symmetry adapted cartesian basis functions of B2G symmetry.
 There are     7 symmetry adapted cartesian basis functions of B3G symmetry.
 There are     5 symmetry adapted cartesian basis functions of AU  symmetry.
 There are     7 symmetry adapted cartesian basis functions of B1U symmetry.
 There are    23 symmetry adapted cartesian basis functions of B2U symmetry.
 There are    16 symmetry adapted cartesian basis functions of B3U symmetry.
 There are    23 symmetry adapted basis functions of AG  symmetry.
 There are    16 symmetry adapted basis functions of B1G symmetry.
 There are     5 symmetry adapted basis functions of B2G symmetry.
 There are     7 symmetry adapted basis functions of B3G symmetry.
 There are     5 symmetry adapted basis functions of AU  symmetry.
 There are     7 symmetry adapted basis functions of B1U symmetry.
 There are    23 symmetry adapted basis functions of B2U symmetry.
 There are    16 symmetry adapted basis functions of B3U symmetry.
   102 basis functions,   192 primitive gaussians,   102 cartesian basis functions
    21 alpha electrons       21 beta electrons
       nuclear repulsion energy       203.2110515691 Hartrees.
 NAtoms=   12 NActive=   12 NUniq=    2 SFac= 4.00D+00 NAtFMM=   60 NAOKFM=F Big=F
 Integral buffers will be    131072 words long.
 Raffenetti 2 integral format.
 Two-electron integral symmetry is turned on.
 One-electron integrals computed using PRISM.
 NBasis=   102 RedAO= T EigKep=  5.21D-04  NBF=    23    16     5     7     5     7    23    16
 NBsUse=   102 1.00D-06 EigRej= -1.00D+00 NBFU=    23    16     5     7     5     7    23    16
 ExpMin= 1.61D-01 ExpMax= 3.05D+03 ExpMxC= 4.57D+02 IAcc=2 IRadAn=         4 AccDes= 0.00D+00
 Harris functional with IExCor=  402 and IRadAn=      -1 diagonalized for initial guess.
 HarFok:  IExCor=  402 AccDes= 0.00D+00 IRadAn=        -1 IDoV= 1 UseB2=F ITyADJ=14
 ICtDFT=  3500011 ScaDFX=  1.000000  1.000000  1.000000  1.000000
 FoFCou: FMM=F IPFlag=           0 FMFlag=      100000 FMFlg1=           0
         NFxFlg=           0 DoJE=T BraDBF=F KetDBF=T FulRan=T
         wScrn=  0.000000 ICntrl=       500 IOpCl=  0 I1Cent=   200000004 NGrid=           0
         NMat0=    1 NMatS0=      1 NMatT0=    0 NMatD0=    1 NMtDS0=    0 NMtDT0=    0
 Petite list used in FoFCou.
 Initial guess orbital symmetries:
       Occupied  (A1G) (E1U) (E1U) (E2G) (E2G) (B1U) (A1G) (E1U)
                 (E1U) (E2G) (E2G) (A1G) (B2U) (B1U) (E1U) (E1U)
                 (A2U) (E2G) (E2G) (E1G) (E1G)
       Virtual   (E2U) (E2U) (A1G) (B2G) (E1U) (E1U) (E2G) (E2G)
                 (B1U) (E2G) (E2G) (E1U) (E1U) (B2U) (B1U) (A2U)
                 (A2G) (A1G) (E2G) (E2G) (A1G) (E1G) (E1G) (E1U)
                 (E1U) (E2U) (E2U) (B2G) (B1U) (E2G) (E2G) (E1U)
                 (E1U) (A1G) (E1U) (E1U) (A2G) (E2G) (E2G) (E1U)
                 (E1U) (B1U) (B1G) (A2U) (E2U) (E2U) (E2G) (E2G)
                 (E1G) (E1G) (A1G) (B2U) (A1G) (B1U) (E1U) (E1U)
                 (E2G) (E2G) (E1U) (E1U) (E2U) (E2U) (E1G) (E1G)
                 (B2G) (E2G) (E2G) (A1U) (E2G) (E2G) (E1U) (E1U)
                 (B1U) (A2G) (B1U) (A1G) (E1U) (E1U) (E2G) (E2G)
                 (B1U)
 The electronic state of the initial guess is 1-A1G.
 Keep R1 ints in memory in symmetry-blocked form, NReq=15690931.
 Requested convergence on RMS density matrix=1.00D-08 within 128 cycles.
 Requested convergence on MAX density matrix=1.00D-06.
 Requested convergence on             energy=1.00D-06.
 No special actions if energy rises.
 Integral accuracy reduced to 1.0D-05 until final iterations.
 Initial convergence to 1.0D-05 achieved.  Increase integral accuracy.
 SCF Done:  E(RB3LYP) =  -232.248660647     A.U. after   11 cycles
            NFock= 11  Conv=0.43D-09     -V/T= 2.0101

 **********************************************************************

            Population analysis using the SCF Density.

 **********************************************************************

 Orbital symmetries:
       Occupied  (A1G) (E1U) (E1U) (E2G) (E2G) (B1U) (A1G) (E1U)
                 (E1U) (E2G) (E2G) (A1G) (B1U) (B2U) (E1U) (E1U)
                 (A2U) (E2G) (E2G) (E1G) (E1G)
       Virtual   (E2U) (E2U) (A1G) (E1U) (E1U) (B2G) (E2G) (E2G)
                 (B1U) (E2G) (E2G) (E1U) (E1U) (B2U) (A2U) (B1U)
                 (A1G) (A2G) (A1G) (E1G) (E1G) (E2G) (E2G) (E1U)
                 (E1U) (E2U) (E2U) (B2G) (E2G) (E2G) (B1U) (E1U)
                 (E1U) (E1U) (E1U) (A1G) (A2G) (E2G) (E2G) (E1U)
                 (E1U) (B1U) (B1G) (A2U) (E2G) (E2G) (E2U) (E2U)
                 (E1G) (E1G) (A1G) (B2U) (A1G) (B1U) (E1U) (E1U)
                 (E2G) (E2G) (E2U) (E2U) (E1U) (E1U) (E1G) (E1G)
                 (B2G) (E2G) (E2G) (A1U) (E2G) (E2G) (E1U) (E1U)
                 (B1U) (A2G) (B1U) (A1G) (E1U) (E1U) (E2G) (E2G)
                 (B1U)
 The electronic state is 1-A1G.
 Alpha  occ. eigenvalues --  -10.18766 -10.18740 -10.18740 -10.18684 -10.18684
 Alpha  occ. eigenvalues --  -10.18658  -0.84638  -0.73988  -0.73988  -0.59754
 Alpha  occ. eigenvalues --   -0.59754  -0.51863  -0.45934  -0.43813  -0.41730
 Alpha  occ. eigenvalues --   -0.41730  -0.35944  -0.34029  -0.34029  -0.24630
 Alpha  occ. eigenvalues --   -0.24630
 Alpha virt. eigenvalues --    0.00365   0.00365   0.09084   0.14477   0.14477
 Alpha virt. eigenvalues --    0.16401   0.18194   0.18194   0.19038   0.30274
 Alpha virt. eigenvalues --    0.30274   0.31921   0.31921   0.47486   0.52732
 Alpha virt. eigenvalues --    0.54922   0.55031   0.56409   0.59250   0.60202
 Alpha virt. eigenvalues --    0.60202   0.60215   0.60215   0.62684   0.62684
 Alpha virt. eigenvalues --    0.66756   0.66756   0.74490   0.84021   0.84021
 Alpha virt. eigenvalues --    0.84129   0.86518   0.86518   0.93910   0.93910
 Alpha virt. eigenvalues --    0.94082   0.95812   1.08262   1.08262   1.14249
 Alpha virt. eigenvalues --    1.14249   1.20115   1.26190   1.39622   1.43659
 Alpha virt. eigenvalues --    1.43659   1.48702   1.48702   1.51543   1.51543
 Alpha virt. eigenvalues --    1.75698   1.78998   1.85761   1.89592   1.97395
 Alpha virt. eigenvalues --    1.97395   2.06625   2.06625   2.15173   2.15173
 Alpha virt. eigenvalues --    2.15463   2.15463   2.30963   2.30963   2.32179
 Alpha virt. eigenvalues --    2.54594   2.54594   2.65717   2.70584   2.70584
 Alpha virt. eigenvalues --    2.72206   2.72206   2.76026   3.01712   3.41079
 Alpha virt. eigenvalues --    4.08543   4.11785   4.11785   4.33044   4.33044
 Alpha virt. eigenvalues --    4.66608
          Condensed to atoms (all electrons):
               1          2          3          4          5          6
     1  C    4.848759   0.551540  -0.031920  -0.040945  -0.031920   0.551540
     2  C    0.551540   4.848759   0.551540  -0.031920  -0.040945  -0.031920
     3  C   -0.031920   0.551540   4.848759   0.551540  -0.031920  -0.040945
     4  C   -0.040945  -0.031920   0.551540   4.848759   0.551540  -0.031920
     5  C   -0.031920  -0.040945  -0.031920   0.551540   4.848759   0.551540
     6  C    0.551540  -0.031920  -0.040945  -0.031920   0.551540   4.848759
     7  H    0.358936  -0.043812   0.004791   0.000580   0.004791  -0.043812
     8  H   -0.043812   0.358936  -0.043812   0.004791   0.000580   0.004791
     9  H    0.004791  -0.043812   0.358936  -0.043812   0.004791   0.000580
    10  H    0.000580   0.004791  -0.043812   0.358936  -0.043812   0.004791
    11  H    0.004791   0.000580   0.004791  -0.043812   0.358936  -0.043812
    12  H   -0.043812   0.004791   0.000580   0.004791  -0.043812   0.358936
               7          8          9         10         11         12
     1  C    0.358936  -0.043812   0.004791   0.000580   0.004791  -0.043812
     2  C   -0.043812   0.358936  -0.043812   0.004791   0.000580   0.004791
     3  C    0.004791  -0.043812   0.358936  -0.043812   0.004791   0.000580
     4  C    0.000580   0.004791  -0.043812   0.358936  -0.043812   0.004791
     5  C    0.004791   0.000580   0.004791  -0.043812   0.358936  -0.043812
     6  C   -0.043812   0.004791   0.000580   0.004791  -0.043812   0.358936
     7  H    0.602107  -0.005881  -0.000182   0.000016  -0.000182  -0.005881
     8  H   -0.005881   0.602107  -0.005881  -0.000182   0.000016  -0.000182
     9  H   -0.000182  -0.005881   0.602107  -0.005881  -0.000182   0.000016
    10  H    0.000016  -0.000182  -0.005881   0.602107  -0.005881  -0.000182
    11  H   -0.000182   0.000016  -0.000182  -0.005881   0.602107  -0.005881
    12  H   -0.005881  -0.000182   0.000016  -0.000182  -0.005881   0.602107
 Mulliken charges:
               1
     1  C   -0.128528
     2  C   -0.128528
     3  C   -0.128528
     4  C   -0.128528
     5  C   -0.128528
     6  C   -0.128528
     7  H    0.128528
     8  H    0.128528
     9  H    0.128528
    10  H    0.128528
    11  H    0.128528
    12  H    0.128528
 Sum of Mulliken charges =   0.00000
 Mulliken charges with hydrogens summed into heavy atoms:
               1
     1  C    0.000000
     2  C    0.000000
     3  C    0.000000
     4  C    0.000000
     5  C    0.000000
     6  C    0.000000
 Electronic spatial extent (au):  <R**2>=            458.2222
 Charge=              0.0000 electrons
 Dipole moment (field-independent basis, Debye):
    X=              0.0000    Y=              0.0000    Z=              0.0000  Tot=              0.0000
 Quadrupole moment (field-independent basis, Debye-Ang):
   XX=            -31.4021   YY=            -31.4021   ZZ=            -38.5973
   XY=              0.0000   XZ=              0.0000   YZ=              0.0000
 Traceless Quadrupole moment (field-independent basis, Debye-Ang):
   XX=              2.3984   YY=              2.3984   ZZ=             -4.7967
   XY=              0.0000   XZ=              0.0000   YZ=              0.0000
 Octapole moment (field-independent basis, Debye-Ang**2):
  XXX=              0.0000  YYY=              0.0000  ZZZ=              0.0000  XYY=              0.0000
  XXY=              0.0000  XXZ=              0.0000  XZZ=              0.0000  YZZ=              0.0000
  YYZ=              0.0000  XYZ=              0.0000
 Hexadecapole moment (field-independent basis, Debye-Ang**3):
 XXXX=           -270.0949 YYYY=           -270.0949 ZZZZ=            -40.0465 XXXY=              0.0000
 XXXZ=              0.0000 YYYX=              0.0000 YYYZ=              0.0000 ZZZX=              0.0000
 ZZZY=              0.0000 XXYY=            -90.0316 XXZZ=            -60.3519 YYZZ=            -60.3519
 XXYZ=              0.0000 YYXZ=              0.0000 ZZXY=              0.0000
 N-N= 2.032110515691D+02 E-N=-9.437632968772D+02  KE= 2.299303282102D+02
 Symmetry AG   KE= 7.406972081026D+01
 Symmetry B1G  KE= 3.747588424154D+01
 Symmetry B2G  KE= 2.236993685819D+00
 Symmetry B3G  KE= 2.236993685819D+00
 Symmetry AU   KE= 3.894184560524D-16
 Symmetry B1U  KE= 1.865694708428D+00
 Symmetry B2U  KE= 7.177029313784D+01
 Symmetry B3U  KE= 4.027474794052D+01
 1|1|UNPC-DESKTOP-T8NFEU5|SP|RB3LYP|6-31G(d)|C6H6|ZZ|23-May-2020|0||# S
 P RB3LYP/6-31G*||Optimized||0,1|C,0,0.,1.39649,0.|C,0,1.209396,0.69824
 5,0.|C,0,1.209396,-0.698245,0.|C,0,0.,-1.39649,0.|C,0,-1.209396,-0.698
 245,0.|C,0,-1.209396,0.698245,0.|H,0,0.,2.483191,0.|H,0,2.150506,1.241
 595,0.|H,0,2.150506,-1.241595,0.|H,0,0.,-2.483191,0.|H,0,-2.150506,-1.
 241595,0.|H,0,-2.150506,1.241595,0.||Version=EM64W-G16RevB.01|State=1-
 A1G|HF=-232.2486606|RMSD=4.326e-010|Dipole=0.,0.,0.|Quadrupole=1.78312
 95,1.7831295,-3.566259,0.,0.,0.|PG=D06H [3C2'(H1C1.C1H1)]||@


  ON THE CHOICE OF THE CORRECT LANGUAGE -
 I SPEAK SPANISH TO GOD, ITALIAN TO WOMEN,
 FRENCH TO MEN, AND GERMAN TO MY HORSE.
          -- CHARLES V
 Job cpu time:       0 days  0 hours  0 minutes  4.0 seconds.
 Elapsed time:       0 days  0 hours  0 minutes  3.3 seconds.
 File lengths (MBytes):  RWF=     10 Int=      0 D2E=      0 Chk=      2 Scr=      1
 Normal termination of Gaussian 16 at Sat May 23 12:25:36 2020.
