 Default CPUs for threads: 0,1
 Default is to use a total of   2 processors:
                                2 via shared-memory
                                1 via Linda
 Entering Link 1 = C:\G16W\l1.exe PID=      7420.
  
 Copyright (c) 1988-2017, Gaussian, Inc.  All Rights Reserved.
  
 This is part of the Gaussian(R) 16 program.  It is based on
 the Gaussian(R) 09 system (copyright 2009, Gaussian, Inc.),
 the Gaussian(R) 03 system (copyright 2003, Gaussian, Inc.),
 the Gaussian(R) 98 system (copyright 1998, Gaussian, Inc.),
 the Gaussian(R) 94 system (copyright 1995, Gaussian, Inc.),
 the Gaussian 92(TM) system (copyright 1992, Gaussian, Inc.),
 the Gaussian 90(TM) system (copyright 1990, Gaussian, Inc.),
 the Gaussian 88(TM) system (copyright 1988, Gaussian, Inc.),
 the Gaussian 86(TM) system (copyright 1986, Carnegie Mellon
 University), and the Gaussian 82(TM) system (copyright 1983,
 Carnegie Mellon University). Gaussian is a federally registered
 trademark of Gaussian, Inc.
  
 This software contains proprietary and confidential information,
 including trade secrets, belonging to Gaussian, Inc.
  
 This software is provided under written license and may be
 used, copied, transmitted, or stored only in accord with that
 written license.
  
 The following legend is applicable only to US Government
 contracts under FAR:
  
                    RESTRICTED RIGHTS LEGEND
  
 Use, reproduction and disclosure by the US Government is
 subject to restrictions as set forth in subparagraphs (a)
 and (c) of the Commercial Computer Software - Restricted
 Rights clause in FAR 52.227-19.
  
 Gaussian, Inc.
 340 Quinnipiac St., Bldg. 40, Wallingford CT 06492
  
  
 ---------------------------------------------------------------
 Warning -- This program may not be used in any manner that
 competes with the business of Gaussian, Inc. or will provide
 assistance to any competitor of Gaussian, Inc.  The licensee
 of this program is prohibited from giving any competitor of
 Gaussian, Inc. access to this program.  By using this program,
 the user acknowledges that Gaussian, Inc. is engaged in the
 business of creating and licensing software in the field of
 computational chemistry and represents and warrants to the
 licensee that it is not a competitor of Gaussian, Inc. and that
 it will not use this program in any manner prohibited above.
 ---------------------------------------------------------------
  

 Cite this work as:
 Gaussian 16, Revision B.01,
 M. J. Frisch, G. W. Trucks, H. B. Schlegel, G. E. Scuseria, 
 M. A. Robb, J. R. Cheeseman, G. Scalmani, V. Barone, 
 G. A. Petersson, H. Nakatsuji, X. Li, M. Caricato, A. V. Marenich, 
 J. Bloino, B. G. Janesko, R. Gomperts, B. Mennucci, H. P. Hratchian, 
 J. V. Ortiz, A. F. Izmaylov, J. L. Sonnenberg, D. Williams-Young, 
 F. Ding, F. Lipparini, F. Egidi, J. Goings, B. Peng, A. Petrone, 
 T. Henderson, D. Ranasinghe, V. G. Zakrzewski, J. Gao, N. Rega, 
 G. Zheng, W. Liang, M. Hada, M. Ehara, K. Toyota, R. Fukuda, 
 J. Hasegawa, M. Ishida, T. Nakajima, Y. Honda, O. Kitao, H. Nakai, 
 T. Vreven, K. Throssell, J. A. Montgomery, Jr., J. E. Peralta, 
 F. Ogliaro, M. J. Bearpark, J. J. Heyd, E. N. Brothers, K. N. Kudin, 
 V. N. Staroverov, T. A. Keith, R. Kobayashi, J. Normand, 
 K. Raghavachari, A. P. Rendell, J. C. Burant, S. S. Iyengar, 
 J. Tomasi, M. Cossi, J. M. Millam, M. Klene, C. Adamo, R. Cammi, 
 J. W. Ochterski, R. L. Martin, K. Morokuma, O. Farkas, 
 J. B. Foresman, and D. J. Fox, Gaussian, Inc., Wallingford CT, 2016.
 
 ******************************************
 Gaussian 16:  EM64W-G16RevB.01 16-Dec-2017
                23-May-2020 
 ******************************************
 %chk=C:\Users\zz\Desktop\O2_U.chk
 SetSPE:  set environment variable "MP_BIND" = "yes"
 SetSPE:  set environment variable "MP_BLIST" = "0,1"
 Default route: G09Defaults
 ------------------
 # SP UB3LYP/6-31G*
 ------------------
 1/38=1,158=3,167=1,172=1/1;
 2/12=2,17=6,18=5,40=1/2;
 3/5=1,6=6,7=1,11=2,25=1,27=10,30=1,74=-5,75=-4,116=2,158=3/1,2,3;
 4/60=-1/1;
 5/5=2,38=5,87=10/2;
 6/7=2,8=2,9=2,10=2,28=1,87=10/1;
 99/5=1,9=1/99;
 Using 2006 physical constants.
 ---------
 Optimized
 ---------
 Symbolic Z-matrix:
 Charge =  0 Multiplicity = 3
 O                     0.        0.        0.6073 
 O                     0.        0.       -0.6073 
 
                          Input orientation:                          
 ---------------------------------------------------------------------
 Center     Atomic      Atomic             Coordinates (Angstroms)
 Number     Number       Type             X           Y           Z
 ---------------------------------------------------------------------
      1          8           0        0.000000    0.000000    0.607296
      2          8           0        0.000000    0.000000   -0.607296
 ---------------------------------------------------------------------
 Stoichiometry    O2(3)
 Framework group  D*H[C*(O.O)]
 Deg. of freedom     1
 Full point group                 D*H     NOp   8
 Largest Abelian subgroup         D2H     NOp   8
 Largest concise Abelian subgroup C2      NOp   2
                         Standard orientation:                         
 ---------------------------------------------------------------------
 Center     Atomic      Atomic             Coordinates (Angstroms)
 Number     Number       Type             X           Y           Z
 ---------------------------------------------------------------------
      1          8           0        0.000000    0.000000    0.607296
      2          8           0        0.000000    0.000000   -0.607296
 ---------------------------------------------------------------------
 Rotational constants (GHZ):           0.0000000          42.8355584          42.8355584
 Standard basis: 6-31G(d) (6D, 7F)
 There are     8 symmetry adapted cartesian basis functions of AG  symmetry.
 There are     1 symmetry adapted cartesian basis functions of B1G symmetry.
 There are     3 symmetry adapted cartesian basis functions of B2G symmetry.
 There are     3 symmetry adapted cartesian basis functions of B3G symmetry.
 There are     1 symmetry adapted cartesian basis functions of AU  symmetry.
 There are     8 symmetry adapted cartesian basis functions of B1U symmetry.
 There are     3 symmetry adapted cartesian basis functions of B2U symmetry.
 There are     3 symmetry adapted cartesian basis functions of B3U symmetry.
 There are     8 symmetry adapted basis functions of AG  symmetry.
 There are     1 symmetry adapted basis functions of B1G symmetry.
 There are     3 symmetry adapted basis functions of B2G symmetry.
 There are     3 symmetry adapted basis functions of B3G symmetry.
 There are     1 symmetry adapted basis functions of AU  symmetry.
 There are     8 symmetry adapted basis functions of B1U symmetry.
 There are     3 symmetry adapted basis functions of B2U symmetry.
 There are     3 symmetry adapted basis functions of B3U symmetry.
    30 basis functions,    56 primitive gaussians,    30 cartesian basis functions
     9 alpha electrons        7 beta electrons
       nuclear repulsion energy        27.8837184419 Hartrees.
 NAtoms=    2 NActive=    2 NUniq=    1 SFac= 4.00D+00 NAtFMM=   60 NAOKFM=F Big=F
 Integral buffers will be    131072 words long.
 Raffenetti 2 integral format.
 Two-electron integral symmetry is turned on.
 One-electron integrals computed using PRISM.
 NBasis=    30 RedAO= T EigKep=  7.19D-03  NBF=     8     1     3     3     1     8     3     3
 NBsUse=    30 1.00D-06 EigRej= -1.00D+00 NBFU=     8     1     3     3     1     8     3     3
 ExpMin= 2.70D-01 ExpMax= 5.48D+03 ExpMxC= 8.25D+02 IAcc=2 IRadAn=         4 AccDes= 0.00D+00
 Harris functional with IExCor=  402 and IRadAn=      -1 diagonalized for initial guess.
 HarFok:  IExCor=  402 AccDes= 0.00D+00 IRadAn=        -1 IDoV= 1 UseB2=F ITyADJ=14
 ICtDFT=  3500011 ScaDFX=  1.000000  1.000000  1.000000  1.000000
 FoFCou: FMM=F IPFlag=           0 FMFlag=      100000 FMFlg1=           0
         NFxFlg=           0 DoJE=T BraDBF=F KetDBF=T FulRan=T
         wScrn=  0.000000 ICntrl=       500 IOpCl=  0 I1Cent=   200000004 NGrid=           0
         NMat0=    1 NMatS0=      1 NMatT0=    0 NMatD0=    1 NMtDS0=    0 NMtDT0=    0
 Petite list used in FoFCou.
 Initial guess orbital symmetries:
 Alpha Orbitals:
       Occupied  (SGG) (SGU) (SGG) (SGU) (SGG) (PIU) (PIU) (PIG)
                 (PIG)
       Virtual   (SGU) (SGG) (SGU) (PIU) (PIU) (SGG) (PIG) (PIG)
                 (SGU) (PIU) (PIU) (DLTG) (DLTG) (DLTU) (DLTU)
                 (SGG) (PIG) (PIG) (SGU) (SGG) (SGU)
 Beta  Orbitals:
       Occupied  (SGG) (SGU) (SGG) (SGU) (SGG) (PIU) (PIU)
       Virtual   (PIG) (PIG) (SGU) (SGG) (SGU) (PIU) (PIU) (SGG)
                 (PIG) (PIG) (SGU) (PIU) (PIU) (DLTG) (DLTG) (DLTU)
                 (DLTU) (SGG) (PIG) (PIG) (SGU) (SGG) (SGU)
 The electronic state of the initial guess is 3-SGG.
 Initial guess <Sx>= 0.0000 <Sy>= 0.0000 <Sz>= 1.0000 <S**2>= 2.0000 S= 1.0000
 Keep R1 and R2 ints in memory in symmetry-blocked form, NReq=1833891.
 Requested convergence on RMS density matrix=1.00D-08 within 128 cycles.
 Requested convergence on MAX density matrix=1.00D-06.
 Requested convergence on             energy=1.00D-06.
 No special actions if energy rises.
 Integral accuracy reduced to 1.0D-05 until final iterations.
 Initial convergence to 1.0D-05 achieved.  Increase integral accuracy.
 SCF Done:  E(UB3LYP) =  -150.320042076     A.U. after   10 cycles
            NFock= 10  Conv=0.44D-08     -V/T= 2.0082
 <Sx>= 0.0000 <Sy>= 0.0000 <Sz>= 1.0000 <S**2>= 2.0066 S= 1.0022
 <L.S>= 0.000000000000E+00
 Annihilation of the first spin contaminant:
 S**2 before annihilation     2.0066,   after     2.0000

 **********************************************************************

            Population analysis using the SCF Density.

 **********************************************************************

 Orbital symmetries:
 Alpha Orbitals:
       Occupied  (SGG) (SGU) (SGG) (SGU) (PIU) (PIU) (SGG) (PIG)
                 (PIG)
       Virtual   (SGU) (SGG) (SGU) (PIU) (PIU) (SGG) (PIG) (PIG)
                 (SGU) (PIU) (PIU) (DLTG) (DLTG) (DLTU) (DLTU)
                 (SGG) (PIG) (PIG) (SGU) (SGG) (SGU)
 Beta  Orbitals:
       Occupied  (SGG) (SGU) (SGG) (SGU) (SGG) (PIU) (PIU)
       Virtual   (PIG) (PIG) (SGU) (SGG) (SGU) (PIU) (PIU) (SGG)
                 (PIG) (PIG) (SGU) (PIU) (PIU) (DLTG) (DLTG) (DLTU)
                 (DLTU) (SGG) (PIG) (PIG) (SGU) (SGG) (SGU)
 The electronic state is 3-SGG.
 Alpha  occ. eigenvalues --  -19.31227 -19.31210  -1.30178  -0.83800  -0.55938
 Alpha  occ. eigenvalues --   -0.55938  -0.54741  -0.30817  -0.30817
 Alpha virt. eigenvalues --    0.19636   0.66955   0.70863   0.77676   0.77676
 Alpha virt. eigenvalues --    0.85639   0.89570   0.89570   1.27389   1.48635
 Alpha virt. eigenvalues --    1.48635   1.51349   1.51350   1.89292   1.89293
 Alpha virt. eigenvalues --    2.39860   2.53519   2.53519   2.79546   3.15411
 Alpha virt. eigenvalues --    3.48734
  Beta  occ. eigenvalues --  -19.28295 -19.28265  -1.24387  -0.74933  -0.50776
  Beta  occ. eigenvalues --   -0.45693  -0.45693
  Beta virt. eigenvalues --   -0.11278  -0.11278   0.24060   0.68830   0.72644
  Beta virt. eigenvalues --    0.83244   0.83244   0.86824   0.95366   0.95366
  Beta virt. eigenvalues --    1.30134   1.51966   1.51966   1.56923   1.56924
  Beta virt. eigenvalues --    1.96453   1.96454   2.43474   2.57751   2.57751
  Beta virt. eigenvalues --    2.82090   3.19826   3.53194
          Condensed to atoms (all electrons):
               1          2
     1  O    7.881503   0.118497
     2  O    0.118497   7.881503
          Atomic-Atomic Spin Densities.
               1          2
     1  O    1.326252  -0.326252
     2  O   -0.326252   1.326252
 Mulliken charges and spin densities:
               1          2
     1  O    0.000000   1.000000
     2  O    0.000000   1.000000
 Sum of Mulliken charges =   0.00000   2.00000
 Mulliken charges and spin densities with hydrogens summed into heavy atoms:
               1          2
     1  O    0.000000   1.000000
     2  O    0.000000   1.000000
 Electronic spatial extent (au):  <R**2>=             43.2796
 Charge=              0.0000 electrons
 Dipole moment (field-independent basis, Debye):
    X=              0.0000    Y=              0.0000    Z=              0.0000  Tot=              0.0000
 Quadrupole moment (field-independent basis, Debye-Ang):
   XX=             -9.8035   YY=             -9.8035   ZZ=            -10.2621
   XY=              0.0000   XZ=              0.0000   YZ=              0.0000
 Traceless Quadrupole moment (field-independent basis, Debye-Ang):
   XX=              0.1529   YY=              0.1529   ZZ=             -0.3057
   XY=              0.0000   XZ=              0.0000   YZ=              0.0000
 Octapole moment (field-independent basis, Debye-Ang**2):
  XXX=              0.0000  YYY=              0.0000  ZZZ=              0.0000  XYY=              0.0000
  XXY=              0.0000  XXZ=              0.0000  XZZ=              0.0000  YZZ=              0.0000
  YYZ=              0.0000  XYZ=              0.0000
 Hexadecapole moment (field-independent basis, Debye-Ang**3):
 XXXX=             -6.4119 YYYY=             -6.4119 ZZZZ=            -27.7459 XXXY=              0.0000
 XXXZ=              0.0000 YYYX=              0.0000 YYYZ=              0.0000 ZZZX=              0.0000
 ZZZY=              0.0000 XXYY=             -2.1373 XXZZ=             -5.9170 YYZZ=             -5.9170
 XXYZ=              0.0000 YYXZ=              0.0000 ZZXY=              0.0000
 N-N= 2.788371844188D+01 E-N=-4.105972612820D+02  KE= 1.490971068224D+02
 Symmetry AG   KE= 6.922169881944D+01
 Symmetry B1G  KE= 1.782326123678D-34
 Symmetry B2G  KE= 3.040403442167D+00
 Symmetry B3G  KE= 3.040403442167D+00
 Symmetry AU   KE= 4.036806890300D-34
 Symmetry B1U  KE= 6.473548034824D+01
 Symmetry B2U  KE= 4.529560385196D+00
 Symmetry B3U  KE= 4.529560385196D+00
 Symmetry AG   SP= 5.376558573356D-15
 Symmetry B1G  SP= 3.135974178400D-35
 Symmetry B2G  SP= 1.000000000000D+00
 Symmetry B3G  SP= 1.000000000000D+00
 Symmetry AU   SP= 3.050106048588D-35
 Symmetry B1U  SP=-1.901433112524D-15
 Symmetry B2U  SP= 9.436895709314D-16
 Symmetry B3U  SP=-1.491862189340D-16
                          Isotropic Fermi Contact Couplings
        Atom                 a.u.       MegaHertz       Gauss      10(-4) cm-1
     1  O(17)              0.13947     -42.27426     -15.08451     -14.10117
     2  O(17)              0.13947     -42.27426     -15.08451     -14.10117
 --------------------------------------------------------
       Center         ----  Spin Dipole Couplings  ----
                      3XX-RR        3YY-RR        3ZZ-RR
 --------------------------------------------------------
     1   Atom        1.156582      1.156582     -2.313165
     2   Atom        1.156582      1.156582     -2.313165
 --------------------------------------------------------
                        XY            XZ            YZ
 --------------------------------------------------------
     1   Atom        0.000000      0.000000      0.000000
     2   Atom        0.000000      0.000000      0.000000
 --------------------------------------------------------


 ---------------------------------------------------------------------------------
              Anisotropic Spin Dipole Couplings in Principal Axis System
 ---------------------------------------------------------------------------------

       Atom             a.u.   MegaHertz   Gauss  10(-4) cm-1        Axes

              Baa    -2.3132   167.379    59.725    55.832  0.0000  0.0000  1.0000
     1 O(17)  Bbb     1.1566   -83.689   -29.862   -27.916  0.9571 -0.2898  0.0000
              Bcc     1.1566   -83.689   -29.862   -27.916  0.2898  0.9571  0.0000
 
              Baa    -2.3132   167.379    59.725    55.832  0.0000  0.0000  1.0000
     2 O(17)  Bbb     1.1566   -83.689   -29.862   -27.916  0.8507 -0.5257  0.0000
              Bcc     1.1566   -83.689   -29.862   -27.916  0.5257  0.8507  0.0000
 

 ---------------------------------------------------------------------------------

 1|1|UNPC-DESKTOP-T8NFEU5|SP|UB3LYP|6-31G(d)|O2(3)|ZZ|23-May-2020|0||# 
 SP UB3LYP/6-31G*||Optimized||0,3|O,0,0.,0.,0.607296|O,0,0.,0.,-0.60729
 6||Version=EM64W-G16RevB.01|State=3-SGG|HF=-150.3200421|S2=2.006605|S2
 -1=0.|S2A=2.000023|RMSD=4.430e-009|Dipole=0.,0.,0.|Quadrupole=0.113642
 3,0.1136423,-0.2272846,0.,0.,0.|PG=D*H [C*(O1.O1)]||@


 WHEN YOU'VE SEEN ONE NUCLEAR WAR YOU'VE SEEN THEM ALL.
 Job cpu time:       0 days  0 hours  0 minutes  2.0 seconds.
 Elapsed time:       0 days  0 hours  0 minutes  1.3 seconds.
 File lengths (MBytes):  RWF=      6 Int=      0 D2E=      0 Chk=      1 Scr=      1
 Normal termination of Gaussian 16 at Sat May 23 12:27:44 2020.
